# vtk DataFile Version 3.0
MOAB 5.0.1
ASCII
DATASET UNSTRUCTURED_GRID
POINTS 58 double
0 0 0
1 0 0
1 1 0
0 1 0
0.1111111111 0 0
0.2222222222 0 0
0.3333333333 0 0
0.4444444444 0 0
0.5555555556 0 0
0.6666666667 0 0
0.7777777778 0 0
0.8888888889 0 0
1 0.1666666667 0
1 0.3333333333 0
1 0.5 0
1 0.6666666667 0
1 0.8333333333 0
0.6666666667 1 0
0.3333333333 1 0
0 0.8 0
0 0.6 0
0 0.4 0
0 0.2 0
0.5101947363 0.4674822632 0
0.7304800727 0.2639903872 0
0.2759776191 0.3019613886 0
0.5 0.2222222222 0
0.7494760707 0.5833333333 0
0.3063538004 0.7110303754 0
0.8473723044 0.1614405346 0
0.1500874393 0.180102115 0
0.5055903717 0.7707708329 0
0.4019102199 0.11769045 0
0.6098021738 0.1440020197 0
0.1779163444 0.499438247 0
0.8388888889 0.4166666667 0
0.835493076 0.7572983841 0
0.6731788418 0.4359189502 0
0.73345513 0.1036900806 0
0.5023424788 0.0967829384 0
0.277261015 0.1163385288 0
0.4188837449 0.3595679012 0
0.8755399357 0.8976579294 0
0.1207962806 0.3163003501 0
0.8833482532 0.2684195177 0
0.5936906997 0.3196816457 0
0.3517676535 0.4951600062 0
0.8885978779 0.5833333333 0
0.08557304341 0.08995979218 0
0.4308512482 0.6237436878 0
0.1525062059 0.8422060751 0
0.5931429067 0.5998340705 0
0.1273552701 0.6905349395 0
0.9139189053 0.07919286882 0
0.3748065198 0.2235560982 0
0.8333333333 0.06785714286 0
0.1692509662 0.07728008719 0
0.6700738184 0.7422473242 0
CELLS 239 808
2 0 4
2 4 5
2 5 6
2 6 7
2 7 8
2 8 9
2 9 10
2 10 11
2 11 1
2 1 12
2 12 13
2 13 14
2 14 15
2 15 16
2 16 2
2 2 17
2 17 18
2 18 3
2 3 19
2 19 20
2 20 21
2 21 22
2 22 0
2 4 48
2 48 0
2 48 22
2 12 53
2 53 1
2 53 11
2 2 42
2 42 16
2 17 42
2 19 50
2 50 3
2 50 18
2 5 56
2 56 4
2 56 48
2 6 40
2 40 5
2 40 56
2 7 32
2 32 6
2 32 40
2 7 39
2 39 32
2 8 39
2 9 33
2 33 8
2 33 39
2 9 38
2 38 33
2 10 38
2 10 55
2 55 38
2 11 55
2 53 55
2 12 44
2 44 29
2 29 12
2 13 44
2 29 53
2 14 35
2 35 13
2 35 44
2 14 47
2 47 35
2 15 47
2 16 36
2 36 15
2 36 47
2 42 36
2 17 36
2 57 36
2 17 57
2 18 31
2 31 17
2 31 57
2 18 28
2 28 31
2 50 28
2 20 52
2 52 19
2 52 50
2 21 34
2 34 20
2 34 52
2 21 43
2 43 34
2 22 43
2 22 30
2 30 43
2 48 30
2 23 41
2 41 45
2 45 23
2 45 37
2 37 23
2 23 51
2 51 49
2 49 23
2 23 46
2 46 41
2 37 51
2 49 46
2 24 33
2 38 24
2 24 45
2 45 33
2 38 29
2 29 24
2 24 35
2 35 37
2 37 24
2 24 44
2 25 46
2 46 34
2 34 25
2 25 41
2 43 25
2 25 40
2 40 54
2 54 25
2 25 30
2 30 40
2 54 41
2 26 33
2 45 26
2 41 26
2 26 39
2 26 32
2 54 26
2 54 32
2 27 37
2 35 27
2 47 27
2 36 27
2 27 51
2 57 27
2 57 51
2 28 49
2 49 31
2 28 34
2 46 28
2 28 52
2 29 55
2 30 56
2 51 31
3 24 33 38
3 24 45 33
3 32 54 40
3 24 38 29
3 8 9 33
3 18 28 31
3 6 7 32
3 1 12 53
3 26 33 45
3 24 35 37
3 28 49 31
3 12 44 29
3 25 46 34
3 20 21 34
3 23 41 45
3 27 37 35
3 17 36 42
3 25 41 46
3 25 34 43
3 25 40 54
3 25 30 40
3 13 14 35
3 12 13 44
3 23 45 37
3 57 36 17
3 20 34 52
3 21 43 34
3 9 38 33
3 8 33 39
3 15 16 36
3 27 35 47
3 28 34 46
3 24 44 35
3 7 39 32
3 26 45 41
3 17 18 31
3 14 47 35
3 13 35 44
3 6 32 40
3 28 52 34
3 24 29 44
3 12 29 53
3 9 10 38
3 18 50 28
3 7 8 39
3 5 6 40
3 15 36 47
3 24 37 45
3 27 47 36
3 25 43 30
3 23 51 49
3 28 46 49
3 26 39 33
3 26 32 39
3 17 31 57
3 31 49 51
3 22 30 43
3 21 22 43
3 2 42 16
3 0 4 48
3 14 15 47
3 16 42 36
3 28 50 52
3 10 55 38
3 3 19 50
3 22 48 30
3 19 20 52
3 27 51 37
3 5 40 56
3 1 53 11
3 29 55 53
3 26 41 54
3 23 46 41
3 23 37 51
3 29 38 55
3 26 54 32
3 10 11 55
3 27 36 57
3 4 5 56
3 19 52 50
3 31 51 57
3 25 54 41
3 4 56 48
3 11 53 55
3 30 56 40
3 23 49 46
3 27 57 51
3 30 48 56
3 0 48 22
3 2 17 42
3 3 50 18
CELL_TYPES 239
3
3
3
3
3
3
3
3
3
3
3
3
3
3
3
3
3
3
3
3
3
3
3
3
3
3
3
3
3
3
3
3
3
3
3
3
3
3
3
3
3
3
3
3
3
3
3
3
3
3
3
3
3
3
3
3
3
3
3
3
3
3
3
3
3
3
3
3
3
3
3
3
3
3
3
3
3
3
3
3
3
3
3
3
3
3
3
3
3
3
3
3
3
3
3
3
3
3
3
3
3
3
3
3
3
3
3
3
3
3
3
3
3
3
3
3
3
3
3
3
3
3
3
3
3
3
3
3
3
3
3
3
3
3
3
3
3
3
3
3
3
3
3
3
3
3
3
3
5
5
5
5
5
5
5
5
5
5
5
5
5
5
5
5
5
5
5
5
5
5
5
5
5
5
5
5
5
5
5
5
5
5
5
5
5
5
5
5
5
5
5
5
5
5
5
5
5
5
5
5
5
5
5
5
5
5
5
5
5
5
5
5
5
5
5
5
5
5
5
5
5
5
5
5
5
5
5
5
5
5
5
5
5
5
5
5
5
5
5
POINT_DATA 58
SCALARS GLOBAL_ID int 1
LOOKUP_TABLE default
1 
2 
3 
4 
5 
6 
7 
8 
9 
10 
11 
12 
13 
14 
15 
16 
17 
18 
19 
20 
21 
22 
23 
24 
25 
26 
27 
28 
29 
30 
31 
32 
33 
34 
35 
36 
37 
38 
39 
40 
41 
42 
43 
44 
45 
46 
47 
48 
49 
50 
51 
52 
53 
54 
55 
56 
57 
58 
SCALARS Dirichlet double 1
LOOKUP_TABLE default
1 
0 
0 
1 
0 
0 
0 
0 
0 
0 
0 
0 
0 
0 
0 
0 
0 
0 
0 
1 
1 
1 
1 
0 
0 
0 
0 
0 
0 
0 
0 
0 
0 
0 
0 
0 
0 
0 
0 
0 
0 
0 
0 
0 
0 
0 
0 
0 
0 
0 
0 
0 
0 
0 
0 
0 
0 
0 
SCALARS Neumann double 1
LOOKUP_TABLE default
0 
0 
0 
0 
0 
0 
0 
0 
0 
0 
0 
0 
1 
1 
1 
1 
1 
0 
0 
0 
0 
0 
0 
0 
0 
0 
0 
0 
0 
0 
0 
0 
0 
0 
0 
0 
0 
0 
0 
0 
0 
0 
0 
0 
0 
0 
0 
0 
0 
0 
0 
0 
0 
0 
0 
0 
0 
0 
CELL_DATA 239
SCALARS GLOBAL_ID int 1
LOOKUP_TABLE default
5 
6 
7 
8 
9 
10 
11 
12 
13 
14 
15 
16 
17 
18 
19 
20 
21 
22 
23 
24 
25 
26 
27 
0 
0 
0 
0 
0 
0 
0 
0 
0 
0 
0 
0 
0 
0 
0 
0 
0 
0 
0 
0 
0 
0 
0 
0 
0 
0 
0 
0 
0 
0 
0 
0 
0 
0 
0 
0 
0 
0 
0 
0 
0 
0 
0 
0 
0 
0 
0 
0 
0 
0 
0 
0 
0 
0 
0 
0 
0 
0 
0 
0 
0 
0 
0 
0 
0 
0 
0 
0 
0 
0 
0 
0 
0 
0 
0 
0 
0 
0 
0 
0 
0 
0 
0 
0 
0 
0 
0 
0 
0 
0 
0 
0 
0 
0 
0 
0 
0 
0 
0 
0 
0 
0 
0 
0 
0 
0 
0 
0 
0 
0 
0 
0 
0 
0 
0 
0 
0 
0 
0 
0 
0 
0 
0 
0 
0 
28 
29 
30 
31 
32 
33 
34 
35 
36 
37 
38 
39 
40 
41 
42 
43 
44 
45 
46 
47 
48 
49 
50 
51 
52 
53 
54 
55 
56 
57 
58 
59 
60 
61 
62 
63 
64 
65 
66 
67 
68 
69 
70 
71 
72 
73 
74 
75 
76 
77 
78 
79 
80 
81 
82 
83 
84 
85 
86 
87 
88 
89 
90 
91 
92 
93 
94 
95 
96 
97 
98 
99 
100 
101 
102 
103 
104 
105 
106 
107 
108 
109 
110 
111 
112 
113 
114 
115 
116 
117 
118 
SCALARS Dirichlet double 1
LOOKUP_TABLE default
0 
0 
0 
0 
0 
0 
0 
0 
0 
0 
0 
0 
0 
0 
0 
0 
0 
0 
1 
1 
1 
1 
1 
0 
0 
0 
0 
0 
0 
0 
0 
0 
0 
0 
0 
0 
0 
0 
0 
0 
0 
0 
0 
0 
0 
0 
0 
0 
0 
0 
0 
0 
0 
0 
0 
0 
0 
0 
0 
0 
0 
0 
0 
0 
0 
0 
0 
0 
0 
0 
0 
0 
0 
0 
0 
0 
0 
0 
0 
0 
0 
0 
0 
0 
0 
0 
0 
0 
0 
0 
0 
0 
0 
0 
0 
0 
0 
0 
0 
0 
0 
0 
0 
0 
0 
0 
0 
0 
0 
0 
0 
0 
0 
0 
0 
0 
0 
0 
0 
0 
0 
0 
0 
0 
0 
0 
0 
0 
0 
0 
0 
0 
0 
0 
0 
0 
0 
0 
0 
0 
0 
0 
0 
0 
0 
0 
0 
0 
0 
0 
0 
0 
0 
0 
0 
0 
0 
0 
0 
0 
0 
0 
0 
0 
0 
0 
0 
0 
0 
0 
0 
0 
0 
0 
0 
0 
0 
0 
0 
0 
0 
0 
0 
0 
0 
0 
0 
0 
0 
0 
0 
0 
0 
0 
0 
0 
0 
0 
0 
0 
0 
0 
0 
0 
0 
0 
0 
0 
0 
0 
0 
0 
0 
0 
0 
0 
0 
0 
0 
0 
0 
0 
0 
0 
0 
0 
0 
0 
0 
0 
0 
0 
0 
0 
0 
0 
0 
0 
0 
SCALARS Neumann double 1
LOOKUP_TABLE default
0 
0 
0 
0 
0 
0 
0 
0 
0 
1 
1 
1 
1 
1 
1 
0 
0 
0 
0 
0 
0 
0 
0 
0 
0 
0 
0 
0 
0 
0 
0 
0 
0 
0 
0 
0 
0 
0 
0 
0 
0 
0 
0 
0 
0 
0 
0 
0 
0 
0 
0 
0 
0 
0 
0 
0 
0 
0 
0 
0 
0 
0 
0 
0 
0 
0 
0 
0 
0 
0 
0 
0 
0 
0 
0 
0 
0 
0 
0 
0 
0 
0 
0 
0 
0 
0 
0 
0 
0 
0 
0 
0 
0 
0 
0 
0 
0 
0 
0 
0 
0 
0 
0 
0 
0 
0 
0 
0 
0 
0 
0 
0 
0 
0 
0 
0 
0 
0 
0 
0 
0 
0 
0 
0 
0 
0 
0 
0 
0 
0 
0 
0 
0 
0 
0 
0 
0 
0 
0 
0 
0 
0 
0 
0 
0 
0 
0 
0 
0 
0 
0 
0 
0 
0 
0 
0 
0 
0 
0 
0 
0 
0 
0 
0 
0 
0 
0 
0 
0 
0 
0 
0 
0 
0 
0 
0 
0 
0 
0 
0 
0 
0 
0 
0 
0 
0 
0 
0 
0 
0 
0 
0 
0 
0 
0 
0 
0 
0 
0 
0 
0 
0 
0 
0 
0 
0 
0 
0 
0 
0 
0 
0 
0 
0 
0 
0 
0 
0 
0 
0 
0 
0 
0 
0 
0 
0 
0 
0 
0 
0 
0 
0 
0 
0 
0 
0 
0 
0 
0 
TENSORS Permeability double
0 0 0 0 0 0 0 0 0 
0 0 0 0 0 0 0 0 0 
0 0 0 0 0 0 0 0 0 
0 0 0 0 0 0 0 0 0 
0 0 0 0 0 0 0 0 0 
0 0 0 0 0 0 0 0 0 
0 0 0 0 0 0 0 0 0 
0 0 0 0 0 0 0 0 0 
0 0 0 0 0 0 0 0 0 
0 0 0 0 0 0 0 0 0 
0 0 0 0 0 0 0 0 0 
0 0 0 0 0 0 0 0 0 
0 0 0 0 0 0 0 0 0 
0 0 0 0 0 0 0 0 0 
0 0 0 0 0 0 0 0 0 
0 0 0 0 0 0 0 0 0 
0 0 0 0 0 0 0 0 0 
0 0 0 0 0 0 0 0 0 
0 0 0 0 0 0 0 0 0 
0 0 0 0 0 0 0 0 0 
0 0 0 0 0 0 0 0 0 
0 0 0 0 0 0 0 0 0 
0 0 0 0 0 0 0 0 0 
0 0 0 0 0 0 0 0 0 
0 0 0 0 0 0 0 0 0 
0 0 0 0 0 0 0 0 0 
0 0 0 0 0 0 0 0 0 
0 0 0 0 0 0 0 0 0 
0 0 0 0 0 0 0 0 0 
0 0 0 0 0 0 0 0 0 
0 0 0 0 0 0 0 0 0 
0 0 0 0 0 0 0 0 0 
0 0 0 0 0 0 0 0 0 
0 0 0 0 0 0 0 0 0 
0 0 0 0 0 0 0 0 0 
0 0 0 0 0 0 0 0 0 
0 0 0 0 0 0 0 0 0 
0 0 0 0 0 0 0 0 0 
0 0 0 0 0 0 0 0 0 
0 0 0 0 0 0 0 0 0 
0 0 0 0 0 0 0 0 0 
0 0 0 0 0 0 0 0 0 
0 0 0 0 0 0 0 0 0 
0 0 0 0 0 0 0 0 0 
0 0 0 0 0 0 0 0 0 
0 0 0 0 0 0 0 0 0 
0 0 0 0 0 0 0 0 0 
0 0 0 0 0 0 0 0 0 
0 0 0 0 0 0 0 0 0 
0 0 0 0 0 0 0 0 0 
0 0 0 0 0 0 0 0 0 
0 0 0 0 0 0 0 0 0 
0 0 0 0 0 0 0 0 0 
0 0 0 0 0 0 0 0 0 
0 0 0 0 0 0 0 0 0 
0 0 0 0 0 0 0 0 0 
0 0 0 0 0 0 0 0 0 
0 0 0 0 0 0 0 0 0 
0 0 0 0 0 0 0 0 0 
0 0 0 0 0 0 0 0 0 
0 0 0 0 0 0 0 0 0 
0 0 0 0 0 0 0 0 0 
0 0 0 0 0 0 0 0 0 
0 0 0 0 0 0 0 0 0 
0 0 0 0 0 0 0 0 0 
0 0 0 0 0 0 0 0 0 
0 0 0 0 0 0 0 0 0 
0 0 0 0 0 0 0 0 0 
0 0 0 0 0 0 0 0 0 
0 0 0 0 0 0 0 0 0 
0 0 0 0 0 0 0 0 0 
0 0 0 0 0 0 0 0 0 
0 0 0 0 0 0 0 0 0 
0 0 0 0 0 0 0 0 0 
0 0 0 0 0 0 0 0 0 
0 0 0 0 0 0 0 0 0 
0 0 0 0 0 0 0 0 0 
0 0 0 0 0 0 0 0 0 
0 0 0 0 0 0 0 0 0 
0 0 0 0 0 0 0 0 0 
0 0 0 0 0 0 0 0 0 
0 0 0 0 0 0 0 0 0 
0 0 0 0 0 0 0 0 0 
0 0 0 0 0 0 0 0 0 
0 0 0 0 0 0 0 0 0 
0 0 0 0 0 0 0 0 0 
0 0 0 0 0 0 0 0 0 
0 0 0 0 0 0 0 0 0 
0 0 0 0 0 0 0 0 0 
0 0 0 0 0 0 0 0 0 
0 0 0 0 0 0 0 0 0 
0 0 0 0 0 0 0 0 0 
0 0 0 0 0 0 0 0 0 
0 0 0 0 0 0 0 0 0 
0 0 0 0 0 0 0 0 0 
0 0 0 0 0 0 0 0 0 
0 0 0 0 0 0 0 0 0 
0 0 0 0 0 0 0 0 0 
0 0 0 0 0 0 0 0 0 
0 0 0 0 0 0 0 0 0 
0 0 0 0 0 0 0 0 0 
0 0 0 0 0 0 0 0 0 
0 0 0 0 0 0 0 0 0 
0 0 0 0 0 0 0 0 0 
0 0 0 0 0 0 0 0 0 
0 0 0 0 0 0 0 0 0 
0 0 0 0 0 0 0 0 0 
0 0 0 0 0 0 0 0 0 
0 0 0 0 0 0 0 0 0 
0 0 0 0 0 0 0 0 0 
0 0 0 0 0 0 0 0 0 
0 0 0 0 0 0 0 0 0 
0 0 0 0 0 0 0 0 0 
0 0 0 0 0 0 0 0 0 
0 0 0 0 0 0 0 0 0 
0 0 0 0 0 0 0 0 0 
0 0 0 0 0 0 0 0 0 
0 0 0 0 0 0 0 0 0 
0 0 0 0 0 0 0 0 0 
0 0 0 0 0 0 0 0 0 
0 0 0 0 0 0 0 0 0 
0 0 0 0 0 0 0 0 0 
0 0 0 0 0 0 0 0 0 
0 0 0 0 0 0 0 0 0 
0 0 0 0 0 0 0 0 0 
0 0 0 0 0 0 0 0 0 
0 0 0 0 0 0 0 0 0 
0 0 0 0 0 0 0 0 0 
0 0 0 0 0 0 0 0 0 
0 0 0 0 0 0 0 0 0 
0 0 0 0 0 0 0 0 0 
0 0 0 0 0 0 0 0 0 
0 0 0 0 0 0 0 0 0 
0 0 0 0 0 0 0 0 0 
0 0 0 0 0 0 0 0 0 
0 0 0 0 0 0 0 0 0 
0 0 0 0 0 0 0 0 0 
0 0 0 0 0 0 0 0 0 
0 0 0 0 0 0 0 0 0 
0 0 0 0 0 0 0 0 0 
0 0 0 0 0 0 0 0 0 
0 0 0 0 0 0 0 0 0 
0 0 0 0 0 0 0 0 0 
0 0 0 0 0 0 0 0 0 
0 0 0 0 0 0 0 0 0 
0 0 0 0 0 0 0 0 0 
0 0 0 0 0 0 0 0 0 
0 0 0 0 0 0 0 0 0 
1 0 0 0 1 0 0 0 1 
1 0 0 0 1 0 0 0 1 
1 0 0 0 1 0 0 0 1 
1 0 0 0 1 0 0 0 1 
1 0 0 0 1 0 0 0 1 
1 0 0 0 1 0 0 0 1 
1 0 0 0 1 0 0 0 1 
1 0 0 0 1 0 0 0 1 
1 0 0 0 1 0 0 0 1 
1 0 0 0 1 0 0 0 1 
1 0 0 0 1 0 0 0 1 
1 0 0 0 1 0 0 0 1 
1 0 0 0 1 0 0 0 1 
1 0 0 0 1 0 0 0 1 
1 0 0 0 1 0 0 0 1 
1 0 0 0 1 0 0 0 1 
1 0 0 0 1 0 0 0 1 
1 0 0 0 1 0 0 0 1 
1 0 0 0 1 0 0 0 1 
1 0 0 0 1 0 0 0 1 
1 0 0 0 1 0 0 0 1 
1 0 0 0 1 0 0 0 1 
1 0 0 0 1 0 0 0 1 
1 0 0 0 1 0 0 0 1 
1 0 0 0 1 0 0 0 1 
1 0 0 0 1 0 0 0 1 
1 0 0 0 1 0 0 0 1 
1 0 0 0 1 0 0 0 1 
1 0 0 0 1 0 0 0 1 
1 0 0 0 1 0 0 0 1 
1 0 0 0 1 0 0 0 1 
1 0 0 0 1 0 0 0 1 
1 0 0 0 1 0 0 0 1 
1 0 0 0 1 0 0 0 1 
1 0 0 0 1 0 0 0 1 
1 0 0 0 1 0 0 0 1 
1 0 0 0 1 0 0 0 1 
1 0 0 0 1 0 0 0 1 
1 0 0 0 1 0 0 0 1 
1 0 0 0 1 0 0 0 1 
1 0 0 0 1 0 0 0 1 
1 0 0 0 1 0 0 0 1 
1 0 0 0 1 0 0 0 1 
1 0 0 0 1 0 0 0 1 
1 0 0 0 1 0 0 0 1 
1 0 0 0 1 0 0 0 1 
1 0 0 0 1 0 0 0 1 
1 0 0 0 1 0 0 0 1 
1 0 0 0 1 0 0 0 1 
1 0 0 0 1 0 0 0 1 
1 0 0 0 1 0 0 0 1 
1 0 0 0 1 0 0 0 1 
1 0 0 0 1 0 0 0 1 
1 0 0 0 1 0 0 0 1 
1 0 0 0 1 0 0 0 1 
1 0 0 0 1 0 0 0 1 
1 0 0 0 1 0 0 0 1 
1 0 0 0 1 0 0 0 1 
1 0 0 0 1 0 0 0 1 
1 0 0 0 1 0 0 0 1 
1 0 0 0 1 0 0 0 1 
1 0 0 0 1 0 0 0 1 
1 0 0 0 1 0 0 0 1 
1 0 0 0 1 0 0 0 1 
1 0 0 0 1 0 0 0 1 
1 0 0 0 1 0 0 0 1 
1 0 0 0 1 0 0 0 1 
1 0 0 0 1 0 0 0 1 
1 0 0 0 1 0 0 0 1 
1 0 0 0 1 0 0 0 1 
1 0 0 0 1 0 0 0 1 
1 0 0 0 1 0 0 0 1 
1 0 0 0 1 0 0 0 1 
1 0 0 0 1 0 0 0 1 
1 0 0 0 1 0 0 0 1 
1 0 0 0 1 0 0 0 1 
1 0 0 0 1 0 0 0 1 
1 0 0 0 1 0 0 0 1 
1 0 0 0 1 0 0 0 1 
1 0 0 0 1 0 0 0 1 
1 0 0 0 1 0 0 0 1 
1 0 0 0 1 0 0 0 1 
1 0 0 0 1 0 0 0 1 
1 0 0 0 1 0 0 0 1 
1 0 0 0 1 0 0 0 1 
1 0 0 0 1 0 0 0 1 
1 0 0 0 1 0 0 0 1 
1 0 0 0 1 0 0 0 1 
1 0 0 0 1 0 0 0 1 
1 0 0 0 1 0 0 0 1 
1 0 0 0 1 0 0 0 1 
SCALARS Pressure double 1
LOOKUP_TABLE default
0 
0 
0 
0 
0 
0 
0 
0 
0 
0 
0 
0 
0 
0 
0 
0 
0 
0 
0 
0 
0 
0 
0 
0 
0 
0 
0 
0 
0 
0 
0 
0 
0 
0 
0 
0 
0 
0 
0 
0 
0 
0 
0 
0 
0 
0 
0 
0 
0 
0 
0 
0 
0 
0 
0 
0 
0 
0 
0 
0 
0 
0 
0 
0 
0 
0 
0 
0 
0 
0 
0 
0 
0 
0 
0 
0 
0 
0 
0 
0 
0 
0 
0 
0 
0 
0 
0 
0 
0 
0 
0 
0 
0 
0 
0 
0 
0 
0 
0 
0 
0 
0 
0 
0 
0 
0 
0 
0 
0 
0 
0 
0 
0 
0 
0 
0 
0 
0 
0 
0 
0 
0 
0 
0 
0 
0 
0 
0 
0 
0 
0 
0 
0 
0 
0 
0 
0 
0 
0 
0 
0 
0 
0 
0 
0 
0 
0 
0 
0.3094921065 
0.3558371972 
0.6489423139 
0.230384686 
0.3901035563 
0.6179007901 
0.6071236958 
0.02882882883 
0.4326076472 
0.2526799817 
0.585538894 
0.08979279599 
0.731506622 
0.9406968886 
0.4926227559 
0.246576566 
0.2051761917 
0.6512489201 
0.8084994781 
0.6908549384 
0.7657092511 
0.05272701799 
0.03994031008 
0.4078751364 
0.2745440186 
0.8982221383 
0.9004567606 
0.3309523757 
0.4447184708 
0.05591103559 
0.1751112997 
0.721294899 
0.1823704355 
0.55085858 
0.4961055092 
0.4975109487 
0.09177626909 
0.0917915423 
0.6627767844 
0.7960727594 
0.1799237787 
0.08202095562 
0.2753205839 
0.7357164012 
0.4997416085 
0.7226163596 
0.09413653533 
0.3345131673 
0.176527787 
0.8178089595 
0.4886045648 
0.6369341899 
0.4631168938 
0.532325801 
0.385018126 
0.4899538814 
0.9097561104 
0.9597523017 
0.05196466635 
0.9344855628 
0.03553862162 
0.0967980588 
0.8044825377 
0.2201036472 
0.9491272926 
0.9214963934 
0.957530423 
0.328295767 
0.777257682 
0.06981444061 
0.1373482122 
0.5690380215 
0.573161065 
0.4079890601 
0.1968294074 
0.5747555637 
0.1689045575 
0.2484537272 
0.8325963954 
0.9066568672 
0.4101057537 
0.6436363694 
0.8781095832 
0.124110914 
0.8012728034 
0.5690828186 
0.3291551102 
0.8651229589 
0.9714948757 
0.1478441153 
0.8379246343 
